24
Total DFT energy = -219189.847544426 
Ti   -3.19230983   0.24892360   0.00910606 
Ti   0.70089882   -2.67414579   -0.16559313 
Ti   3.24378341   -0.19489921   0.08142324 
Ti   -0.91746460   -1.12734992   -1.86211746 
Ti   1.02956285   1.47546595   -1.61511265 
Ti   0.96893826   1.18137405   1.95264691 
Ti   -0.97808941   -1.42144151   1.70564231 
Ti   -0.64942526   2.72817013   0.25612311 
O   0.41906602   1.15137927   0.14430369 
O   -0.01807987   -0.18525193   2.62275729 
O   0.15107203   2.83887011   1.90368084 
O   -0.36759240   -1.09735513   -0.05377397 
O   -2.62798112   -0.96203402   1.43244931 
O   2.67945458   1.01605874   -1.34191980 
O   4.81782715   -0.45130352   0.08707719 
O   0.06955360   0.23927614   -2.53222763 
O   -4.76635355   0.50532820   0.00345163 
O   0.20563953   3.10475892   -1.32329988 
O   -0.09959853   -2.78484591   -1.81315095 
O   2.24724240   -1.87893337   -0.07422148 
O   2.62834559   0.76807552   1.66397306 
O   -0.15416601   -3.05073448   1.41382994 
O   -2.57687187   -0.71405150   -1.57344359 
O   -2.19576880   1.93295766   0.16475097
