21
Total DFT energy = -191790.263288290 
Ti   -0.36025033   -3.78933847   -0.66333567 
Ti   0.06946597   -1.76387568   1.32422829 
Ti   -0.11073846   3.23455772   0.37226969 
Ti   1.77724657   0.77854240   0.86868426 
Ti   -1.71517727   0.55714159   0.45660955 
Ti   -0.94670058   -1.25566387   -1.87742363 
Ti   0.93998860   1.19718099   -1.76963761 
O   -1.37756475   -0.72017968   1.70231514 
O   1.28691860   2.33251802   1.45034340 
O   -0.19880500   4.80119888   0.64869816 
O   1.57480857   -0.80038620   1.78300693 
O   -2.25454441   -0.28144333   -1.06099692 
O   -1.77121540   2.27179696   0.74653812 
O   -1.37101936   -2.94379032   -2.12038583 
O   0.80699567   -4.74137131   -1.18503822 
O   0.34846790   2.80174703   -1.50686791 
O   2.46928174   0.90744072   -0.81569348 
O   0.11348200   0.60102661   -0.11675249 
O   0.11705476   -0.07139305   -2.81054714 
O   0.22174222   -1.89447761   -0.54724241 
O   -0.29292802   -3.48295136   1.27606281
