27
Total DFT energy = -246589.333919454 
Ti   1.95717717   -2.03046234   -0.99787058 
Ti   -1.60877467   -1.34441164   1.24680270 
Ti   -0.43669769   0.76726480   2.74475758 
Ti   1.56231716   0.55340049   -2.62677788 
Ti   -0.82854646   3.32157950   0.53991677 
Ti   2.20140972   2.50334904   -0.66173539 
Ti   1.90169510   0.25393053   1.14149508 
Ti   -0.27769990   -3.58163455   -0.53538101 
Ti   -0.84113003   0.32576937   -0.97994435 
O   2.44118621   -0.99025801   -2.49702592 
O   1.36519593   0.47530696   2.87819663 
O   2.56270034   -1.29223256   0.61008809 
O   2.45823311   2.14372044   -2.45269915 
O   -1.75976070   -0.48671675   2.87781659 
O   -0.80667644   2.38318547   2.24584515 
O   -1.37869279   1.93000528   -0.65452534 
O   -1.73912860   4.63361235   0.52540580 
O   1.63928428   -3.73773976   -0.85378132 
O   -1.22326193   -4.30985334   -1.60001365 
O   -0.15605228   -0.04889392   1.01889590 
O   0.19203125   -1.71182172   -0.97939904 
O   -2.24182821   -0.69360854   -0.29237942 
O   1.21766447   0.83449628   -0.73791823 
O   0.98211061   3.60047023   -0.14087160 
O   -1.11977601   -3.01383162   1.11976214 
O   -0.20054825   0.41868639   -2.76178480 
O   2.99126952   1.67470777   0.75087133 
